/*--------------------------------*- C++ -*----------------------------------*\
| =========                 |                                                 |
| \\      /  F ield         | OpenFOAM: The Open Source CFD Toolbox           |
|  \\    /   O peration     | Version:  dev                                   |
|   \\  /    A nd           | Web:      www.OpenFOAM.com                      |
|    \\/     M anipulation  |                                                 |
\*---------------------------------------------------------------------------*/
FoamFile
{
    version     2.0;
    format      ascii;
    class       none;
    object      foamDict;
}
// * * * * * * * * * * * * * * * * * * * * * * * * * * * * * * * * * * * * * //
blocks
(
    hex (0 1 2 3 4 5 6 7) (1 1 2) simpleGrading (1 1 1)
    hex (8 9 10 11 12 13 14 15) (1 1 2) edgeGrading (1 1 1 1 1 1 1 1 1 1 1 1)
);
// * * * * * * * * * * * * * * * * * * * * * * * * * * * * * * * * * * * * * //